# vtk DataFile Version 3.0
vtk output
ASCII
DATASET UNSTRUCTURED_GRID
POINTS 60 float
0 0 0
0.0247312 0 0
0.36232 0.253526 0
0.321521 0.557155 0
0.267874 0.618431 0
0 0.272761 0
0 0 0
0.36232 0.253526 0
0.69012 0.298919 0
0.715608 0.437779 0
0.581583 0.505733 0
0.321521 0.557155 0
0.36232 0.253526 0
0 0.272761 0
0.267874 0.618431 0
0.192898 1 0
0 1 0
0 0.272761 0
0.35366 0.923617 0
0.862575 0.638781 0
0.863573 0.63932 0
0.67505 1 0
0.251378 1 0
0.35366 0.923617 0
0.73971 0 0
1 0 0
1 0.249836 0
0.693148 0.293008 0
0.73971 0 0
0.267874 0.618431 0
0.321521 0.557155 0
0.581583 0.505733 0
0.35366 0.923617 0
0.251378 1 0
0.192898 1 0
0.267874 0.618431 0
0.863573 0.63932 0
1 0.690204 0
1 1 0
0.67505 1 0
0.863573 0.63932 0
0.693148 0.293008 0
1 0.249836 0
1 0.690204 0
0.863573 0.63932 0
0.862575 0.638781 0
0.715608 0.437779 0
0.69012 0.298919 0
0.693148 0.293008 0
0.581583 0.505733 0
0.715608 0.437779 0
0.862575 0.638781 0
0.35366 0.923617 0
0.581583 0.505733 0
0.0247312 0 0
0.73971 0 0
0.693148 0.293008 0
0.69012 0.298919 0
0.36232 0.253526 0
0.0247312 0 0
CELLS 10 70
7 0 1 2 3 4 5 6
6 7 8 9 10 11 12
5 13 14 15 16 17
6 18 19 20 21 22 23
5 24 25 26 27 28
7 29 30 31 32 33 34 35
5 36 37 38 39 40
8 41 42 43 44 45 46 47 48
5 49 50 51 52 53
6 54 55 56 57 58 59
CELL_TYPES 10
7
7
7
7
7
7
7
7
7
7
CELL_DATA 10
FIELD FieldData 3
weight 1 10 float
 1 1 1 1 1 1 1 1 1 1
num 1 10 float
 6 4 8 5 9 0 3 1 2 7
kind 1 10 float
 0 0 0 0 0 0 0 0 0 0
