# vtk DataFile Version 3.0
vtk output
ASCII
DATASET UNSTRUCTURED_GRID
POINTS 10 float
0.471248 0.618757 0
0.978415 0.34374 0
0.546299 0.659692 0
0.756805 0.937911 0
0.436536 0.443205 0
0.67936 0.897432 0
0.240665 0.416885 0
0.485287 0.091153 0
0.079498 0.541781 0
0.953343 0.165532 0
CELLS 10 20
1 0
1 1
1 2
1 3
1 4
1 5
1 6
1 7
1 8
1 9
CELL_TYPES 10
1
1
1
1
1
1
1
1
1
1
CELL_DATA 10
FIELD FieldData 1
num 1 10 float
 0 1 2 3 4 5 6 7 8 9
